BEGIN_CFG
 Size
    128
 Supercell
        11.992202      0.000000      0.000000
         0.000000     11.992202      0.000000
         0.000000      0.000000     11.992202
 AtomData:  id type       cartes_x      cartes_y      cartes_z           fx          fy          fz
             1    0      11.945930     11.968160      0.036230     0.634624    0.037740    0.185393
             2    0      11.971620      0.009170      2.985620     0.071068    0.175890    0.120985
             3    0      11.949290      0.000080      5.953560     0.254220    0.556864    0.276718
             4    0       0.107810      0.064610      8.898150    -0.370900   -0.325736    0.893317
             5    0      11.989120      2.909550      0.003910    -0.036954    0.351810   -0.042333
             6    0      11.905640      3.109430      3.105710     0.232667   -0.593430   -0.455429
             7    0      11.941240      3.038520      6.092050     0.086945    0.009733   -0.555820
             8    0       0.076910      2.904230      9.013190    -0.204791    0.696751   -0.169182
             9    0       0.011980      6.020060     11.934930     0.031258   -0.216560    0.194715
            10    0      11.750710      6.050630      3.014690     0.681824   -0.279698   -0.097945
            11    0      11.890210      5.977610      6.037650     0.349262    0.468457   -0.249026
            12    0       0.105820      5.937060      9.019790    -0.119635    0.225888   -0.191595
            13    0       0.077830      8.884450     11.884420    -0.024467    0.654196    0.552431
            14    0      11.922550      9.039250      3.076610     0.287618    0.007205   -0.914450
            15    0      11.969130      9.059090      5.904910     0.042114    0.053123    0.757146
            16    0       0.165230      8.993040      8.978480    -0.416971    0.064204   -0.032925
            17    0       2.962920     11.962210      0.092410     0.415259    0.183985   -0.332094
            18    0       2.982880     11.879010      3.070620    -0.176263    0.449315    0.018222
            19    0       3.001790     11.950360      6.050860    -0.152283   -0.019635    0.016096
            20    0       3.055470     11.896750      9.081320     0.101698    0.579227   -0.095613
            21    0       2.883970      2.940830      0.026580     0.651668    0.057876    0.208686
            22    0       2.980470      2.977330      3.107160    -0.635334    0.134718   -0.393133
            23    0       2.946100      2.950380      6.013150     0.050288    0.177715    0.083742
            24    0       3.115660      2.888870      9.024820    -0.552267    0.613007    0.079037
            25    0       3.036420      5.984390      0.068570    -0.351895    0.021141   -0.247446
            26    0       2.764740      5.983720      2.871980     0.581956   -0.063504    0.646216
            27    0       2.941620      5.996170      5.982530    -0.006543   -0.196340   -0.015942
            28    0       3.073180      5.989860      9.094030    -0.037077    0.115873   -0.478565
            29    0       3.068980      9.054830      0.098590     0.147334   -0.521780   -0.347312
            30    0       2.906620      8.891330      2.996920     0.422443    0.494824    0.295697
            31    0       2.878680      8.870600      6.003590     0.368989    0.478219    0.094334
            32    0       3.027970      9.009390      8.979400     0.521455    0.014610    0.092353
            33    0       5.988240     11.959330      0.053410     0.225753    0.782913   -0.291956
            34    0       5.884960      0.036870      3.027110     0.392537   -0.203025    0.045217
            35    0       5.993650     11.898060      5.971530     0.104613    0.340131    0.044482
            36    0       6.113470      0.115800      8.883220    -0.040600   -0.808377    0.583352
            37    0       6.025080      3.088710     11.979620    -0.218241   -0.426705    0.137065
            38    0       5.878680      3.040620      2.978810     0.427670   -0.271957   -0.038843
            39    0       5.977900      3.002750      5.927470    -0.243702   -0.101254    0.362335
            40    0       5.978200      2.962700      8.900320     0.285699    0.343570    0.573611
            41    0       6.028090      5.960010     11.951550     0.000603    0.196113    0.281366
            42    0       5.994150      6.019770      3.044470    -0.147925   -0.391863   -0.570623
            43    0       5.907020      5.979220      6.000420     0.214406    0.096155    0.009180
            44    0       6.016740      6.045620      9.044570    -0.021129   -0.171987   -0.479495
            45    0       6.024380      9.066540     11.944310     0.181420   -0.328455    0.174430
            46    0       6.016130      8.955370      3.027560    -0.429209    0.024879   -0.306303
            47    0       5.965620      8.893850      6.005120     0.317021    0.441973   -0.254432
            48    0       6.111720      8.991310      8.877760    -0.052733    0.140234    0.556442
            49    0       9.050160     11.940300     11.958980    -0.290721    0.652107    0.265905
            50    0       8.939960     11.978070      3.024930    -0.163150    0.715272   -0.610528
            51    0       9.052990      0.050670      5.883230    -0.338466   -0.201839    0.540402
            52    0       9.119730     11.925310      9.021060    -0.490959    0.517321   -0.420663
            53    0       9.048580      3.064280     11.913690    -0.103461   -0.560552    0.158180
            54    0       9.042440      3.053560      2.946090    -0.791147   -0.368767    0.256173
            55    0       9.058310      3.004940      5.902340    -0.909667    0.209470    0.894548
            56    0       8.999530      3.023730      8.982770     0.020888    0.052687   -0.099062
            57    0       9.021090      5.899280      0.000850     0.117887    0.685878   -0.229711
            58    0       8.895260      6.042120      3.059360     0.246723   -0.111945   -0.603281
            59    0       8.971100      6.029180      6.038720    -0.333331    0.075389   -0.369463
            60    0       9.008370      6.028670      9.056990     0.181350   -0.289323   -0.675495
            61    0       9.085390      9.041100     11.974920    -0.359312   -0.566776   -0.032104
            62    0       8.921300      9.110210      2.908340     0.028999   -0.537138   -0.120234
            63    0       9.144830      9.025400      6.011360    -0.584236    0.083181   -0.339921
            64    0       9.037510      8.939390      8.964220     0.489187    0.660232    0.200412
            65    0       1.457100      1.448830      1.583250    -0.183568    0.086059   -0.002797
            66    0       1.446200      1.524580      4.506520     0.219503   -0.113670    0.333228
            67    0       1.464120      1.564600      7.480380     0.458803   -0.555848    0.051456
            68    0       1.554800      1.490620     10.497260    -0.018979   -0.428587    0.220669
            69    0       1.316900      4.425490      1.446240     0.392138    0.332913    0.342917
            70    0       1.406750      4.557670      4.577070    -0.020245   -0.319656   -0.329954
            71    0       1.528170      4.486020      7.487770     0.220511   -0.185029    0.376057
            72    0       1.561840      4.368810     10.528880    -0.005467    0.515693   -0.088818
            73    0       1.387970      7.555980      1.537300     0.419927   -0.337177   -0.386743
            74    0       1.336750      7.465090      4.422210     0.289612   -0.167980    0.597215
            75    0       1.391050      7.453440      7.459210     0.698262    0.092907    0.204866
            76    0       1.678850      7.515750     10.398750    -0.521899   -0.308391    0.642239
            77    0       1.507190     10.484200      1.511130    -0.197784   -0.127651    0.078104
            78    0       1.480150     10.480560      4.533440     0.042474   -0.131598   -0.233674
            79    0       1.515800     10.579100      7.519710     0.148006   -0.714897   -0.310937
            80    0       1.640580     10.409350     10.577280    -0.351752    0.423253   -0.419340
            81    0       4.411780      1.474670      1.580560     0.160508    0.194844   -0.339222
            82    0       4.451220      1.419060      4.598920     0.104889    0.293048   -0.332130
            83    0       4.506890      1.417580      7.566770     0.174760    0.153759   -0.513416
            84    0       4.549430      1.520540     10.516430     0.047478   -0.254129    0.097397
            85    0       4.344470      4.528110      1.532190     0.526503   -0.362548   -0.102307
            86    0       4.431070      4.465300      4.456640    -0.198422    0.231144    0.239789
            87    0       4.428240      4.473570      7.534580     0.240006    0.035745   -0.257481
            88    0       4.494970      4.604990     10.519920     0.173947   -0.868251    0.103995
            89    0       4.489640      7.460230      1.549040    -0.060020    0.239641   -0.168489
            90    0       4.480850      7.417460      4.518980    -0.411223    0.145830   -0.176076
            91    0       4.526590      7.513200      7.493840    -0.285486   -0.240674    0.091832
            92    0       4.656530      7.502960     10.550640    -0.487711    0.200500   -0.286840
            93    0       4.446810     10.544490      1.547170     0.253455   -0.478033    0.081526
            94    0       4.449970     10.349220      4.529610    -0.065812    0.269718    0.079221
            95    0       4.534450     10.519730      7.548950    -0.034826   -0.507824   -0.318769
            96    0       4.620890     10.507100     10.545080    -0.181345   -0.047292   -0.199858
            97    0       7.553400      1.542390      1.454720    -0.530439   -0.032291    0.091945
            98    0       7.433780      1.589610      4.496630     0.082979   -0.503294   -0.434543
            99    0       7.594960      1.526760      7.432680    -0.186147   -0.127723   -0.080772
           100    0       7.553660      1.535960     10.449630     0.010641   -0.113385    0.008961
           101    0       7.538460      4.456910      1.450920    -0.476444    0.272321    0.254978
           102    0       7.456840      4.478520      4.538160    -0.118763    0.189183   -0.336749
           103    0       7.319830      4.535890      7.431100     0.755887   -0.024606    0.223197
           104    0       7.518890      4.500410     10.394660     0.048791   -0.094418    0.291949
           105    0       7.418970      7.438110      1.419760     0.355758    0.472331    0.282795
           106    0       7.515790      7.508570      4.403550    -0.251925   -0.027328    0.657330
           107    0       7.563920      7.512730      7.512880    -0.283701   -0.185988   -0.195769
           108    0       7.687140      7.471370     10.448890    -0.864443    0.293478    0.526922
           109    0       7.432470     10.582910      1.458080     0.169414   -0.351985    0.171142
           110    0       7.497920     10.471070      4.408030    -0.317435    0.231911    0.443984
           111    0       7.535970     10.425990      7.344790     0.305883    0.304673    0.449796
           112    0       7.568890     10.537400     10.489130    -0.003902   -0.317298   -0.295028
           113    0      10.470450      1.519940      1.523760    -0.014412   -0.114479   -0.158668
           114    0      10.441210      1.561640      4.483760     0.378986   -0.232620   -0.132521
           115    0      10.481840      1.527890      7.539340     0.099375   -0.052944   -0.383652
           116    0      10.559540      1.442920     10.478880    -0.090656    0.280993    0.044407
           117    0      10.423330      4.501840      1.475180     0.289429    0.249696    0.192635
           118    0      10.393320      4.507530      4.593130     0.200649    0.351786   -0.264528
           119    0      10.527100      4.605550      7.498560    -0.291863   -0.760085    0.304864
           120    0      10.589560      4.503360     10.446780    -0.250768   -0.319602    0.126186
           121    0      10.554010      7.510550      1.502090    -0.824964    0.104957   -0.318268
           122    0      10.455440      7.651650      4.418460    -0.603686   -0.686073    0.709148
           123    0      10.497230      7.465360      7.544270     0.328283    0.348795   -0.230668
           124    0      10.577830      7.449070     10.463630     0.021495    0.094454    0.142862
           125    0      10.457230     10.488040      1.470360     0.230946    0.085429   -0.085303
           126    0      10.475440     10.598770      4.363830     0.017032   -0.169568    0.622379
           127    0      10.609610     10.576270      7.551660    -0.336687   -0.526209   -0.500616
           128    0      10.574170     10.568350     10.590330     0.040367   -0.789162   -0.739318
 Energy
      -1158.890369340000
 PlusStress:  xx          yy          zz          yz          xz          xy
         9.52445    11.19018     9.36634     1.30909     0.08838    -0.33488
 Feature   EFS_by	VASP
 Feature   mindist	2.398762
END_CFG

BEGIN_CFG
 Size
    128
 Supercell
        11.992202      0.000000      0.000000
         0.000000     11.992202      0.000000
         0.000000      0.000000     11.992202
 AtomData:  id type       cartes_x      cartes_y      cartes_z           fx          fy          fz
             1    0       0.004440     11.974730     11.964040    -0.200174    0.138254    0.197285
             2    0       0.163290     11.975670      2.976120    -0.300654    0.022993    0.097861
             3    0      11.968700      0.006410      6.031810     0.380660    0.297246   -0.460751
             4    0      11.948290     11.896890      9.038630    -0.548699    0.774062   -0.291288
             5    0      11.968670      3.072740     11.910040     0.161185   -0.317569    0.322462
             6    0       0.067800      2.913230      3.067780    -0.067729    0.468101   -0.356753
             7    0       0.088060      3.026440      6.039870    -0.346458   -0.162984    0.063075
             8    0       0.065380      2.897370      8.959790    -0.554146    0.731819    0.379436
             9    0      11.903130      6.033170      0.049520     0.420026   -0.241813   -0.462511
            10    0      11.973400      6.006720      2.933540     0.218583   -0.178565    0.582965
            11    0      11.965310      6.003000      6.044750     0.361182   -0.262514   -0.307832
            12    0      11.978840      6.002460      9.041500    -0.044259   -0.169744   -0.194994
            13    0      11.954200      8.942740      0.099800    -0.039238    0.500033   -0.643723
            14    0       0.000690      8.984070      2.939050     0.399424    0.038458    0.277490
            15    0       0.082590      9.077660      6.105820    -0.331405   -0.561469   -0.610020
            16    0      11.808080      8.875720      9.051680     0.533242    0.687120   -0.128347
            17    0       3.036730     11.988810     11.866380    -0.497543    0.112262    0.629700
            18    0       3.057130      0.005380      3.053830     0.341196   -0.056321   -0.415062
            19    0       3.001350      0.022050      5.932100     0.271704    0.239427    0.059664
            20    0       2.808400      0.012050      8.964100     0.812884    0.212436   -0.107773
            21    0       3.009130      2.933310      0.048820    -0.378504    0.171064    0.005347
            22    0       3.091160      3.073970      3.012280    -0.082285   -0.165428   -0.256411
            23    0       3.176880      2.998150      6.053710    -0.624393    0.592940   -0.752270
            24    0       2.974260      2.939890      9.017880     0.239349    0.324874   -0.046408
            25    0       2.983820      6.112020     11.928060    -0.180804   -0.614578    0.314334
            26    0       3.039780      6.072160      2.980330    -0.227972   -0.495059   -0.357201
            27    0       3.071000      6.034680      5.900930    -0.333310    0.072926    0.322341
            28    0       2.883500      6.018020      9.017120     0.438939    0.147169   -0.340182
            29    0       3.046820      8.996830     11.910680    -0.754502    0.395906    0.343955
            30    0       3.111840      8.929940      2.970830     0.031105    0.302983   -0.199769
            31    0       2.918170      9.069990      5.954560     0.768745   -0.270944    0.231168
            32    0       2.913310      9.042220      8.953340    -0.423305    0.091498   -0.111655
            33    0       5.971040      0.000930      0.029650     0.091575    0.035559   -0.197276
            34    0       6.105460     11.948260      3.086790    -0.313330   -0.028377   -0.532302
            35    0       5.965680     11.893790      5.985270     0.451802    0.509904    0.119606
            36    0       5.860110     11.899730      9.052750     0.564184    0.860982   -0.428120
            37    0       6.012170      2.963200      0.071070    -0.255340    0.108537   -0.344334
            38    0       6.129650      3.007180      3.023550    -0.369125    0.038009   -0.194380
            39    0       5.912810      3.003460      5.987520     0.884765    0.215524   -0.260480
            40    0       5.883420      3.106200      9.100850     0.261981   -0.567689   -0.669058
            41    0       5.940450      5.974110     11.980610     0.109870    0.016401   -0.067493
            42    0       6.146090      5.939990      2.838810    -0.234402    0.398814    0.667940
            43    0       6.017660      6.097150      5.948010     0.162587   -0.177389    0.118573
            44    0       5.889160      5.893190      8.829460     0.064821    0.752809    0.980661
            45    0       5.886080      8.985020     11.956470     0.486428    0.308262    0.379618
            46    0       6.093260      8.892700      3.064070     0.162832    0.476693   -0.491762
            47    0       6.009860      8.953790      6.037890     0.163065    0.370182    0.060463
            48    0       5.924980      8.998590      9.058380    -0.108061   -0.015781   -0.776733
            49    0       9.037610      0.091350      0.108650    -0.381099   -0.532204   -0.431928
            50    0       8.995180     11.897610      3.024000     0.517443    0.573472   -0.275692
            51    0       9.037470      0.019830      5.968340    -0.121198   -0.079612    0.277724
            52    0       8.866270     11.948160      8.965070     0.156842    0.218885    0.320704
            53    0       9.039220      2.980060     11.969240    -0.320895    0.185697   -0.044419
            54    0       8.961660      2.969280      3.019040     0.727117    0.002704    0.035471
            55    0       9.039740      2.940430      6.147670    -0.394678    0.074768   -0.712886
            56    0       8.829310      3.045770      8.989110     0.336615   -0.329377    0.149634
            57    0       9.038080      6.056360      0.003040    -0.729263   -0.508240   -0.173140
            58    0       9.137130      5.915040      2.936000    -0.486277    0.256021    0.444956
            59    0       8.979460      6.026870      5.932180     0.369787   -0.406410    0.456499
            60    0       8.940580      5.981880      8.976110    -0.289380   -0.010677    0.332223
            61    0       8.905200      8.985260     11.933990     0.092446    0.301174    0.685925
            62    0       9.030900      8.953820      3.016180     0.119494    0.268483    0.095739
            63    0       9.078850      9.115650      6.041340    -0.123559   -0.833366    0.019202
            64    0       8.929480      8.928490      9.068810    -0.151889    0.323095   -0.294077
            65    0       1.547530      1.469040      1.529130     0.220834    0.284416   -0.286556
            66    0       1.621260      1.637050      4.526950    -0.151351   -0.668244   -0.308235
            67    0       1.540890      1.631170      7.517450    -0.294245   -0.948844   -0.396413
            68    0       1.406890      1.509210     10.519980     0.344031   -0.246819   -0.071361
            69    0       1.421990      4.512370      1.431240     0.641547    0.040238    0.469265
            70    0       1.496700      4.547250      4.458060     0.412335    0.099263    0.356203
            71    0       1.636570      4.431670      7.465380    -0.712637    0.546780    0.131565
            72    0       1.532740      4.562250     10.407500    -0.500384   -0.372544    0.604856
            73    0       1.525720      7.456060      1.491390    -0.030172    0.292165    0.046568
            74    0       1.559840      7.526250      4.475910    -0.374048   -0.332190    0.015988
            75    0       1.455680      7.424970      7.491720    -0.096415    0.334451   -0.029083
            76    0       1.379040      7.535250     10.595630     0.455689   -0.148043   -0.636179
            77    0       1.558800     10.488150      1.430360     0.249332   -0.038389    0.178923
            78    0       1.613290     10.336920      4.355880    -0.445092    1.025110    0.749381
            79    0       1.467440     10.692140      7.413590    -0.222821   -1.117888    0.419962
            80    0       1.329050     10.464370     10.454940     0.478563   -0.225842    0.217654
            81    0       4.651400      1.363500      1.547400    -0.808299    0.686534    0.108422
            82    0       4.600310      1.509650      4.491740    -0.265992   -0.144549    0.099223
            83    0       4.553060      1.505190      7.418500    -0.371212   -0.349070    0.788151
            84    0       4.494780      1.541350     10.499660    -0.320139   -0.472741    0.272517
            85    0       4.474360      4.524670      1.449020     0.269469   -0.176824    0.157562
            86    0       4.583950      4.661370      4.411350    -0.043996   -0.751923    0.060417
            87    0       4.472110      4.531730      7.476390    -0.100872    0.045061   -0.034100
            88    0       4.360020      4.386740     10.561670     0.209942    0.673608   -0.205164
            89    0       4.594880      7.527560      1.455080    -0.357894   -0.250705    0.050206
            90    0       4.600080      7.523310      4.427610    -0.276744   -0.083987    0.366643
            91    0       4.451640      7.557010      7.519100    -0.192739   -0.164271   -0.277108
            92    0       4.426370      7.643280     10.470170    -0.080665   -1.084360   -0.237569
            93    0       4.521110     10.507950      1.470510     0.005311   -0.136132    0.217470
            94    0       4.597210     10.469330      4.484830    -0.460134   -0.177107    0.206948
            95    0       4.463700     10.538610      7.518800    -0.287473   -0.381282   -0.394129
            96    0       4.393450     10.532840     10.394520    -0.006148   -0.089114    0.405474
            97    0       7.504150      1.486660      1.555860     0.444497   -0.131376   -0.165720
            98    0       7.581730      1.461470      4.475070    -0.204841    0.079957    0.571951
            99    0       7.371950      1.516100      7.549070     0.353755   -0.282168   -0.095757
           100    0       7.402360      1.538640     10.490840     0.394632   -0.322865    0.204501
           101    0       7.539040      4.432080      1.405110     0.414753    0.266843    0.484418
           102    0       7.517100      4.527890      4.496560     0.322442   -0.324093   -0.096467
           103    0       7.419870      4.516090      7.408880     0.201710   -0.045830    0.358237
           104    0       7.357800      4.548670     10.504540     0.447456   -0.058904   -0.130797
           105    0       7.593510      7.486580      1.465450    -0.462191   -0.105654    0.006511
           106    0       7.621130      7.517420      4.563230    -0.120198   -0.183452   -0.538421
           107    0       7.560510      7.472130      7.552590    -0.489403    0.219098   -0.421013
           108    0       7.323220      7.544940     10.503220     0.582018   -0.753415   -0.274972
           109    0       7.468170     10.469030      1.495880     0.189004   -0.032333    0.217107
           110    0       7.578550     10.454480      4.525000    -0.308919   -0.046767    0.060799
           111    0       7.454510     10.463510      7.524560     0.076900    0.036659    0.084739
           112    0       7.358210     10.429430     10.552460     0.509381    0.489865   -0.116797
           113    0      10.597480      1.499960      1.515480    -0.295442   -0.210758    0.057078
           114    0      10.545410      1.449940      4.486680     0.113202    0.201391    0.356151
           115    0      10.477520      1.480340      7.553470    -0.185602   -0.039753   -0.092968
           116    0      10.409700      1.529490     10.498310     0.090501   -0.302351    0.027114
           117    0      10.572890      4.460030      1.500440    -0.200286   -0.133079   -0.173250
           118    0      10.540040      4.405290      4.540640    -0.075183    0.381727    0.050079
           119    0      10.476400      4.436500      7.634480     0.122353    0.215828   -0.828970
           120    0      10.460980      4.483530     10.401970    -0.074352    0.246985    0.278992
           121    0      10.484640      7.586990      1.468280     0.022307   -0.618989    0.506316
           122    0      10.491450      7.435000      4.524740     0.371452    0.434909   -0.111899
           123    0      10.476450      7.434460      7.563120    -0.019761    0.210795   -0.262316
           124    0      10.355970      7.469100     10.584410     0.361640   -0.023794   -0.433988
           125    0      10.591620     10.549270      1.529390    -0.434870   -0.239296   -0.184594
           126    0      10.546450     10.529830      4.470640     0.131370   -0.197282    0.197608
           127    0      10.456380     10.510950      7.501310    -0.151613   -0.131046    0.240215
           128    0      10.367870     10.467400     10.521290     0.097705    0.100960    0.143623
 Energy
      -1158.574952270000
 PlusStress:  xx          yy          zz          yz          xz          xy
        10.93162    10.25246     9.42058     0.25492     0.99985    -0.71270
 Feature   EFS_by	VASP
 Feature   mindist	2.385876
END_CFG

BEGIN_CFG
 Size
    128
 Supercell
        11.992202      0.000000      0.000000
         0.000000     11.992202      0.000000
         0.000000      0.000000     11.992202
 AtomData:  id type       cartes_x      cartes_y      cartes_z           fx          fy          fz
             1    0       0.079860     11.942210      0.083480    -0.221970    0.441136   -0.813313
             2    0      11.969760     11.887150      2.961780    -0.096376    0.699764    0.134836
             3    0      11.989990      0.014450      6.010110     0.008118   -0.227847   -0.202261
             4    0       0.042090     11.988720      8.928180     0.140754    0.063585    0.428821
             5    0       0.057300      3.073850     11.900390    -0.337587   -0.683914    0.573929
             6    0      11.937250      2.958600      2.988710    -0.058117    0.340751   -0.314846
             7    0      11.955210      2.875830      5.934220     0.341477    0.488220    0.165871
             8    0      11.951080      3.134540      8.964000     0.627426   -0.753100    0.095962
             9    0       0.010510      5.983910      0.043510    -0.242366    0.346243    0.187121
            10    0      11.820720      5.925420      3.052430     0.779774    0.410625   -0.191138
            11    0       0.068130      5.972090      6.058110    -0.468444   -0.278645   -0.382462
            12    0       0.156410      6.010690      9.010740    -0.638277   -0.269890    0.142598
            13    0       0.015530      9.052880      0.048080    -0.227847   -0.480053    0.062807
            14    0      11.951200      8.885900      2.953170    -0.217482    0.614111    0.376986
            15    0      11.932260      8.945280      5.993080     0.257882    0.252327    0.164065
            16    0       0.014590      8.976680      9.027240     0.056817   -0.287781    0.244444
            17    0       2.996580     11.923440     11.921310     0.410569    0.753178    0.470905
            18    0       2.898900      0.055420      3.139650     0.438119   -0.169827   -0.787904
            19    0       2.978440     11.957180      5.951680     0.051072    0.134097    0.221169
            20    0       3.014270     11.975100      8.951170     0.403768   -0.049517    0.157284
            21    0       2.982470      2.960660      0.015650     0.186384    0.046015    0.086389
            22    0       3.002740      3.078100      2.976160    -0.223843   -0.419085    0.116695
            23    0       3.046280      2.939070      5.904260    -0.074623    0.345467    0.241285
            24    0       3.114820      2.937430      8.950040    -0.346309    0.100708    0.261811
            25    0       2.935000      5.954140      0.065940     0.633595    0.558073    0.208231
            26    0       2.935020      5.936330      3.109150     0.241746    0.573947   -0.313193
            27    0       3.051720      6.089440      6.030370    -0.434169   -0.748744   -0.103940
            28    0       3.070530      5.879170      9.033650    -0.383872    0.143400   -0.058387
            29    0       3.087820      9.013990      0.074800    -0.152697   -0.186466   -0.395270
            30    0       2.943110      8.925490      3.096640    -0.089334    0.494332   -0.305520